# broken.dat — minimal data file for lmpcheck testing (2 atom types)

100 atoms
0 bonds
0 angles
0 dihedrals
0 impropers

2 atom types
0 bond types
0 angle types
0 dihedral types

0.000000 100.000000 xlo xhi
0.000000 100.000000 ylo yhi
0.000000 100.000000 zlo zhi

Masses

1 14.026400
2 15.034200
