# Collapsing slab seed at T = 620.0 K (slab along X)

5616 atoms
5148 bonds
4680 angles
4212 dihedrals
0 impropers

2 atom types
1 bond types
1 angle types
1 dihedral types

0.000000 750.000000 xlo xhi
0.000000 150.000000 ylo yhi
0.000000 150.000000 zlo zhi

Masses

1 14.026400
2 15.034200

Bond Coeffs

1 383.522000 1.540000

Angle Coeffs

1 62.098700 114.000000

Dihedral Coeffs

1 2.049500 -4.049500 0.315000 6.414000 0.000000

Atoms

	1 1 2 183.525496 0.000001 0.000001
	2 1 1 184.364239 1.291553 0.000001
	3 1 1 183.525496 2.583105 0.000001
	4 1 1 184.364239 3.874658 0.000001
	5 1 1 183.525496 5.166211 0.000001
	6 1 1 184.364239 6.457763 0.000001
	7 1 1 183.525496 7.749316 0.000001
	8 1 1 184.364239 9.040869 0.000001
	9 1 1 183.525496 10.332421 0.000001
	10 1 1 184.364239 11.623974 0.000001
	11 1 1 183.525496 12.915527 0.000001
	12 1 2 184.364239 14.207079 0.000001
	13 2 2 212.983111 0.000001 0.000001
	14 2 1 213.821855 1.291553 0.000001
	15 2 1 212.983111 2.583105 0.000001
	16 2 1 213.821855 3.874658 0.000001
	17 2 1 212.983111 5.166211 0.000001
	18 2 1 213.821855 6.457763 0.000001
	19 2 1 212.983111 7.749316 0.000001
	20 2 1 213.821855 9.040869 0.000001
	21 2 1 212.983111 10.332421 0.000001
	22 2 1 213.821855 11.623974 0.000001
	23 2 1 212.983111 12.915527 0.000001
	24 2 2 213.821855 14.207079 0.000001
	25 3 2 242.440727 0.000001 0.000001
	26 3 1 243.279472 1.291553 0.000001
	27 3 1 242.440727 2.583105 0.000001
	28 3 1 243.279472 3.874658 0.000001
	29 3 1 242.440727 5.166211 0.000001
	30 3 1 243.279472 6.457763 0.000001
	31 3 1 242.440727 7.749316 0.000001
	32 3 1 243.279472 9.040869 0.000001
	33 3 1 242.440727 10.332421 0.000001
	34 3 1 243.279472 11.623974 0.000001
	35 3 1 242.440727 12.915527 0.000001
	36 3 2 243.279472 14.207079 0.000001
	37 4 2 271.898344 0.000001 0.000001
	38 4 1 272.737088 1.291553 0.000001
	39 4 1 271.898344 2.583105 0.000001
	40 4 1 272.737088 3.874658 0.000001
	41 4 1 271.898344 5.166211 0.000001
	42 4 1 272.737088 6.457763 0.000001
	43 4 1 271.898344 7.749316 0.000001
	44 4 1 272.737088 9.040869 0.000001
	45 4 1 271.898344 10.332421 0.000001
	46 4 1 272.737088 11.623974 0.000001
	47 4 1 271.898344 12.915527 0.000001
	48 4 2 272.737088 14.207079 0.000001
	49 5 2 301.355960 0.000001 0.000001
	50 5 1 302.194704 1.291553 0.000001
	51 5 1 301.355960 2.583105 0.000001
	52 5 1 302.194704 3.874658 0.000001
	53 5 1 301.355960 5.166211 0.000001
	54 5 1 302.194704 6.457763 0.000001
	55 5 1 301.355960 7.749316 0.000001
	56 5 1 302.194704 9.040869 0.000001
	57 5 1 301.355960 10.332421 0.000001
	58 5 1 302.194704 11.623974 0.000001
	59 5 1 301.355960 12.915527 0.000001
	60 5 2 302.194704 14.207079 0.000001
	61 6 2 330.813576 0.000001 0.000001
	62 6 1 331.652320 1.291553 0.000001
	63 6 1 330.813576 2.583105 0.000001
	64 6 1 331.652320 3.874658 0.000001
	65 6 1 330.813576 5.166211 0.000001
	66 6 1 331.652320 6.457763 0.000001
	67 6 1 330.813576 7.749316 0.000001
	68 6 1 331.652320 9.040869 0.000001
	69 6 1 330.813576 10.332421 0.000001
	70 6 1 331.652320 11.623974 0.000001
	71 6 1 330.813576 12.915527 0.000001
	72 6 2 331.652320 14.207079 0.000001
	73 7 2 360.271192 0.000001 0.000001
	74 7 1 361.109936 1.291553 0.000001
	75 7 1 360.271192 2.583105 0.000001
	76 7 1 361.109936 3.874658 0.000001
	77 7 1 360.271192 5.166211 0.000001
	78 7 1 361.109936 6.457763 0.000001
	79 7 1 360.271192 7.749316 0.000001
	80 7 1 361.109936 9.040869 0.000001
	81 7 1 360.271192 10.332421 0.000001
	82 7 1 361.109936 11.623974 0.000001
	83 7 1 360.271192 12.915527 0.000001
	84 7 2 361.109936 14.207079 0.000001
	85 8 2 389.728808 0.000001 0.000001
	86 8 1 390.567552 1.291553 0.000001
	87 8 1 389.728808 2.583105 0.000001
	88 8 1 390.567552 3.874658 0.000001
	89 8 1 389.728808 5.166211 0.000001
	90 8 1 390.567552 6.457763 0.000001
	91 8 1 389.728808 7.749316 0.000001
	92 8 1 390.567552 9.040869 0.000001
	93 8 1 389.728808 10.332421 0.000001
	94 8 1 390.567552 11.623974 0.000001
	95 8 1 389.728808 12.915527 0.000001
	96 8 2 390.567552 14.207079 0.000001
	97 9 2 419.186424 0.000001 0.000001
	98 9 1 420.025168 1.291553 0.000001
	99 9 1 419.186424 2.583105 0.000001
	100 9 1 420.025168 3.874658 0.000001
	101 9 1 419.186424 5.166211 0.000001
	102 9 1 420.025168 6.457763 0.000001
	103 9 1 419.186424 7.749316 0.000001
	104 9 1 420.025168 9.040869 0.000001
	105 9 1 419.186424 10.332421 0.000001
	106 9 1 420.025168 11.623974 0.000001
	107 9 1 419.186424 12.915527 0.000001
	108 9 2 420.025168 14.207079 0.000001
	109 10 2 448.644040 0.000001 0.000001
	110 10 1 449.482784 1.291553 0.000001
	111 10 1 448.644040 2.583105 0.000001
	112 10 1 449.482784 3.874658 0.000001
	113 10 1 448.644040 5.166211 0.000001
	114 10 1 449.482784 6.457763 0.000001
	115 10 1 448.644040 7.749316 0.000001
	116 10 1 449.482784 9.040869 0.000001
	117 10 1 448.644040 10.332421 0.000001
	118 10 1 449.482784 11.623974 0.000001
	119 10 1 448.644040 12.915527 0.000001
	120 10 2 449.482784 14.207079 0.000001
	121 11 2 478.101656 0.000001 0.000001
	122 11 1 478.940401 1.291553 0.000001
	123 11 1 478.101656 2.583105 0.000001
	124 11 1 478.940401 3.874658 0.000001
	125 11 1 478.101656 5.166211 0.000001
	126 11 1 478.940401 6.457763 0.000001
	127 11 1 478.101656 7.749316 0.000001
	128 11 1 478.940401 9.040869 0.000001
	129 11 1 478.101656 10.332421 0.000001
	130 11 1 478.940401 11.623974 0.000001
	131 11 1 478.101656 12.915527 0.000001
	132 11 2 478.940401 14.207079 0.000001
	133 12 2 507.559273 0.000001 0.000001
	134 12 1 508.398017 1.291553 0.000001
	135 12 1 507.559273 2.583105 0.000001
	136 12 1 508.398017 3.874658 0.000001
	137 12 1 507.559273 5.166211 0.000001
	138 12 1 508.398017 6.457763 0.000001
	139 12 1 507.559273 7.749316 0.000001
	140 12 1 508.398017 9.040869 0.000001
	141 12 1 507.559273 10.332421 0.000001
	142 12 1 508.398017 11.623974 0.000001
	143 12 1 507.559273 12.915527 0.000001
	144 12 2 508.398017 14.207079 0.000001
	145 13 2 537.016889 0.000001 0.000001
	146 13 1 537.855633 1.291553 0.000001
	147 13 1 537.016889 2.583105 0.000001
	148 13 1 537.855633 3.874658 0.000001
	149 13 1 537.016889 5.166211 0.000001
	150 13 1 537.855633 6.457763 0.000001
	151 13 1 537.016889 7.749316 0.000001
	152 13 1 537.855633 9.040869 0.000001
	153 13 1 537.016889 10.332421 0.000001
	154 13 1 537.855633 11.623974 0.000001
	155 13 1 537.016889 12.915527 0.000001
	156 13 2 537.855633 14.207079 0.000001
	157 14 2 198.254303 25.000000 0.000001
	158 14 1 199.093047 26.291553 0.000001
	159 14 1 198.254303 27.583105 0.000001
	160 14 1 199.093047 28.874658 0.000001
	161 14 1 198.254303 30.166211 0.000001
	162 14 1 199.093047 31.457763 0.000001
	163 14 1 198.254303 32.749316 0.000001
	164 14 1 199.093047 34.040869 0.000001
	165 14 1 198.254303 35.332421 0.000001
	166 14 1 199.093047 36.623974 0.000001
	167 14 1 198.254303 37.915527 0.000001
	168 14 2 199.093047 39.207079 0.000001
	169 15 2 227.711919 25.000000 0.000001
	170 15 1 228.550664 26.291553 0.000001
	171 15 1 227.711919 27.583105 0.000001
	172 15 1 228.550664 28.874658 0.000001
	173 15 1 227.711919 30.166211 0.000001
	174 15 1 228.550664 31.457763 0.000001
	175 15 1 227.711919 32.749316 0.000001
	176 15 1 228.550664 34.040869 0.000001
	177 15 1 227.711919 35.332421 0.000001
	178 15 1 228.550664 36.623974 0.000001
	179 15 1 227.711919 37.915527 0.000001
	180 15 2 228.550664 39.207079 0.000001
	181 16 2 257.169536 25.000000 0.000001
	182 16 1 258.008280 26.291553 0.000001
	183 16 1 257.169536 27.583105 0.000001
	184 16 1 258.008280 28.874658 0.000001
	185 16 1 257.169536 30.166211 0.000001
	186 16 1 258.008280 31.457763 0.000001
	187 16 1 257.169536 32.749316 0.000001
	188 16 1 258.008280 34.040869 0.000001
	189 16 1 257.169536 35.332421 0.000001
	190 16 1 258.008280 36.623974 0.000001
	191 16 1 257.169536 37.915527 0.000001
	192 16 2 258.008280 39.207079 0.000001
	193 17 2 286.627152 25.000000 0.000001
	194 17 1 287.465896 26.291553 0.000001
	195 17 1 286.627152 27.583105 0.000001
	196 17 1 287.465896 28.874658 0.000001
	197 17 1 286.627152 30.166211 0.000001
	198 17 1 287.465896 31.457763 0.000001
	199 17 1 286.627152 32.749316 0.000001
	200 17 1 287.465896 34.040869 0.000001
	201 17 1 286.627152 35.332421 0.000001
	202 17 1 287.465896 36.623974 0.000001
	203 17 1 286.627152 37.915527 0.000001
	204 17 2 287.465896 39.207079 0.000001
	205 18 2 316.084768 25.000000 0.000001
	206 18 1 316.923512 26.291553 0.000001
	207 18 1 316.084768 27.583105 0.000001
	208 18 1 316.923512 28.874658 0.000001
	209 18 1 316.084768 30.166211 0.000001
	210 18 1 316.923512 31.457763 0.000001
	211 18 1 316.084768 32.749316 0.000001
	212 18 1 316.923512 34.040869 0.000001
	213 18 1 316.084768 35.332421 0.000001
	214 18 1 316.923512 36.623974 0.000001
	215 18 1 316.084768 37.915527 0.000001
	216 18 2 316.923512 39.207079 0.000001
	217 19 2 345.542384 25.000000 0.000001
	218 19 1 346.381128 26.291553 0.000001
	219 19 1 345.542384 27.583105 0.000001
	220 19 1 346.381128 28.874658 0.000001
	221 19 1 345.542384 30.166211 0.000001
	222 19 1 346.381128 31.457763 0.000001
	223 19 1 345.542384 32.749316 0.000001
	224 19 1 346.381128 34.040869 0.000001
	225 19 1 345.542384 35.332421 0.000001
	226 19 1 346.381128 36.623974 0.000001
	227 19 1 345.542384 37.915527 0.000001
	228 19 2 346.381128 39.207079 0.000001
	229 20 2 375.000000 25.000000 0.000001
	230 20 1 375.838744 26.291553 0.000001
	231 20 1 375.000000 27.583105 0.000001
	232 20 1 375.838744 28.874658 0.000001
	233 20 1 375.000000 30.166211 0.000001
	234 20 1 375.838744 31.457763 0.000001
	235 20 1 375.000000 32.749316 0.000001
	236 20 1 375.838744 34.040869 0.000001
	237 20 1 375.000000 35.332421 0.000001
	238 20 1 375.838744 36.623974 0.000001
	239 20 1 375.000000 37.915527 0.000001
	240 20 2 375.838744 39.207079 0.000001
	241 21 2 404.457616 25.000000 0.000001
	242 21 1 405.296360 26.291553 0.000001
	243 21 1 404.457616 27.583105 0.000001
	244 21 1 405.296360 28.874658 0.000001
	245 21 1 404.457616 30.166211 0.000001
	246 21 1 405.296360 31.457763 0.000001
	247 21 1 404.457616 32.749316 0.000001
	248 21 1 405.296360 34.040869 0.000001
	249 21 1 404.457616 35.332421 0.000001
	250 21 1 405.296360 36.623974 0.000001
	251 21 1 404.457616 37.915527 0.000001
	252 21 2 405.296360 39.207079 0.000001
	253 22 2 433.915232 25.000000 0.000001
	254 22 1 434.753976 26.291553 0.000001
	255 22 1 433.915232 27.583105 0.000001
	256 22 1 434.753976 28.874658 0.000001
	257 22 1 433.915232 30.166211 0.000001
	258 22 1 434.753976 31.457763 0.000001
	259 22 1 433.915232 32.749316 0.000001
	260 22 1 434.753976 34.040869 0.000001
	261 22 1 433.915232 35.332421 0.000001
	262 22 1 434.753976 36.623974 0.000001
	263 22 1 433.915232 37.915527 0.000001
	264 22 2 434.753976 39.207079 0.000001
	265 23 2 463.372848 25.000000 0.000001
	266 23 1 464.211592 26.291553 0.000001
	267 23 1 463.372848 27.583105 0.000001
	268 23 1 464.211592 28.874658 0.000001
	269 23 1 463.372848 30.166211 0.000001
	270 23 1 464.211592 31.457763 0.000001
	271 23 1 463.372848 32.749316 0.000001
	272 23 1 464.211592 34.040869 0.000001
	273 23 1 463.372848 35.332421 0.000001
	274 23 1 464.211592 36.623974 0.000001
	275 23 1 463.372848 37.915527 0.000001
	276 23 2 464.211592 39.207079 0.000001
	277 24 2 492.830464 25.000000 0.000001
	278 24 1 493.669209 26.291553 0.000001
	279 24 1 492.830464 27.583105 0.000001
	280 24 1 493.669209 28.874658 0.000001
	281 24 1 492.830464 30.166211 0.000001
	282 24 1 493.669209 31.457763 0.000001
	283 24 1 492.830464 32.749316 0.000001
	284 24 1 493.669209 34.040869 0.000001
	285 24 1 492.830464 35.332421 0.000001
	286 24 1 493.669209 36.623974 0.000001
	287 24 1 492.830464 37.915527 0.000001
	288 24 2 493.669209 39.207079 0.000001
	289 25 2 522.288081 25.000000 0.000001
	290 25 1 523.126825 26.291553 0.000001
	291 25 1 522.288081 27.583105 0.000001
	292 25 1 523.126825 28.874658 0.000001
	293 25 1 522.288081 30.166211 0.000001
	294 25 1 523.126825 31.457763 0.000001
	295 25 1 522.288081 32.749316 0.000001
	296 25 1 523.126825 34.040869 0.000001
	297 25 1 522.288081 35.332421 0.000001
	298 25 1 523.126825 36.623974 0.000001
	299 25 1 522.288081 37.915527 0.000001
	300 25 2 523.126825 39.207079 0.000001
	301 26 2 551.745697 25.000000 0.000001
	302 26 1 552.584441 26.291553 0.000001
	303 26 1 551.745697 27.583105 0.000001
	304 26 1 552.584441 28.874658 0.000001
	305 26 1 551.745697 30.166211 0.000001
	306 26 1 552.584441 31.457763 0.000001
	307 26 1 551.745697 32.749316 0.000001
	308 26 1 552.584441 34.040869 0.000001
	309 26 1 551.745697 35.332421 0.000001
	310 26 1 552.584441 36.623974 0.000001
	311 26 1 551.745697 37.915527 0.000001
	312 26 2 552.584441 39.207079 0.000001
	313 27 2 183.525496 50.000000 0.000001
	314 27 1 184.364239 51.291553 0.000001
	315 27 1 183.525496 52.583105 0.000001
	316 27 1 184.364239 53.874658 0.000001
	317 27 1 183.525496 55.166211 0.000001
	318 27 1 184.364239 56.457763 0.000001
	319 27 1 183.525496 57.749316 0.000001
	320 27 1 184.364239 59.040869 0.000001
	321 27 1 183.525496 60.332421 0.000001
	322 27 1 184.364239 61.623974 0.000001
	323 27 1 183.525496 62.915527 0.000001
	324 27 2 184.364239 64.207079 0.000001
	325 28 2 212.983111 50.000000 0.000001
	326 28 1 213.821855 51.291553 0.000001
	327 28 1 212.983111 52.583105 0.000001
	328 28 1 213.821855 53.874658 0.000001
	329 28 1 212.983111 55.166211 0.000001
	330 28 1 213.821855 56.457763 0.000001
	331 28 1 212.983111 57.749316 0.000001
	332 28 1 213.821855 59.040869 0.000001
	333 28 1 212.983111 60.332421 0.000001
	334 28 1 213.821855 61.623974 0.000001
	335 28 1 212.983111 62.915527 0.000001
	336 28 2 213.821855 64.207079 0.000001
	337 29 2 242.440727 50.000000 0.000001
	338 29 1 243.279472 51.291553 0.000001
	339 29 1 242.440727 52.583105 0.000001
	340 29 1 243.279472 53.874658 0.000001
	341 29 1 242.440727 55.166211 0.000001
	342 29 1 243.279472 56.457763 0.000001
	343 29 1 242.440727 57.749316 0.000001
	344 29 1 243.279472 59.040869 0.000001
	345 29 1 242.440727 60.332421 0.000001
	346 29 1 243.279472 61.623974 0.000001
	347 29 1 242.440727 62.915527 0.000001
	348 29 2 243.279472 64.207079 0.000001
	349 30 2 271.898344 50.000000 0.000001
	350 30 1 272.737088 51.291553 0.000001
	351 30 1 271.898344 52.583105 0.000001
	352 30 1 272.737088 53.874658 0.000001
	353 30 1 271.898344 55.166211 0.000001
	354 30 1 272.737088 56.457763 0.000001
	355 30 1 271.898344 57.749316 0.000001
	356 30 1 272.737088 59.040869 0.000001
	357 30 1 271.898344 60.332421 0.000001
	358 30 1 272.737088 61.623974 0.000001
	359 30 1 271.898344 62.915527 0.000001
	360 30 2 272.737088 64.207079 0.000001
	361 31 2 301.355960 50.000000 0.000001
	362 31 1 302.194704 51.291553 0.000001
	363 31 1 301.355960 52.583105 0.000001
	364 31 1 302.194704 53.874658 0.000001
	365 31 1 301.355960 55.166211 0.000001
	366 31 1 302.194704 56.457763 0.000001
	367 31 1 301.355960 57.749316 0.000001
	368 31 1 302.194704 59.040869 0.000001
	369 31 1 301.355960 60.332421 0.000001
	370 31 1 302.194704 61.623974 0.000001
	371 31 1 301.355960 62.915527 0.000001
	372 31 2 302.194704 64.207079 0.000001
	373 32 2 330.813576 50.000000 0.000001
	374 32 1 331.652320 51.291553 0.000001
	375 32 1 330.813576 52.583105 0.000001
	376 32 1 331.652320 53.874658 0.000001
	377 32 1 330.813576 55.166211 0.000001
	378 32 1 331.652320 56.457763 0.000001
	379 32 1 330.813576 57.749316 0.000001
	380 32 1 331.652320 59.040869 0.000001
	381 32 1 330.813576 60.332421 0.000001
	382 32 1 331.652320 61.623974 0.000001
	383 32 1 330.813576 62.915527 0.000001
	384 32 2 331.652320 64.207079 0.000001
	385 33 2 360.271192 50.000000 0.000001
	386 33 1 361.109936 51.291553 0.000001
	387 33 1 360.271192 52.583105 0.000001
	388 33 1 361.109936 53.874658 0.000001
	389 33 1 360.271192 55.166211 0.000001
	390 33 1 361.109936 56.457763 0.000001
	391 33 1 360.271192 57.749316 0.000001
	392 33 1 361.109936 59.040869 0.000001
	393 33 1 360.271192 60.332421 0.000001
	394 33 1 361.109936 61.623974 0.000001
	395 33 1 360.271192 62.915527 0.000001
	396 33 2 361.109936 64.207079 0.000001
	397 34 2 389.728808 50.000000 0.000001
	398 34 1 390.567552 51.291553 0.000001
	399 34 1 389.728808 52.583105 0.000001
	400 34 1 390.567552 53.874658 0.000001
	401 34 1 389.728808 55.166211 0.000001
	402 34 1 390.567552 56.457763 0.000001
	403 34 1 389.728808 57.749316 0.000001
	404 34 1 390.567552 59.040869 0.000001
	405 34 1 389.728808 60.332421 0.000001
	406 34 1 390.567552 61.623974 0.000001
	407 34 1 389.728808 62.915527 0.000001
	408 34 2 390.567552 64.207079 0.000001
	409 35 2 419.186424 50.000000 0.000001
	410 35 1 420.025168 51.291553 0.000001
	411 35 1 419.186424 52.583105 0.000001
	412 35 1 420.025168 53.874658 0.000001
	413 35 1 419.186424 55.166211 0.000001
	414 35 1 420.025168 56.457763 0.000001
	415 35 1 419.186424 57.749316 0.000001
	416 35 1 420.025168 59.040869 0.000001
	417 35 1 419.186424 60.332421 0.000001
	418 35 1 420.025168 61.623974 0.000001
	419 35 1 419.186424 62.915527 0.000001
	420 35 2 420.025168 64.207079 0.000001
	421 36 2 448.644040 50.000000 0.000001
	422 36 1 449.482784 51.291553 0.000001
	423 36 1 448.644040 52.583105 0.000001
	424 36 1 449.482784 53.874658 0.000001
	425 36 1 448.644040 55.166211 0.000001
	426 36 1 449.482784 56.457763 0.000001
	427 36 1 448.644040 57.749316 0.000001
	428 36 1 449.482784 59.040869 0.000001
	429 36 1 448.644040 60.332421 0.000001
	430 36 1 449.482784 61.623974 0.000001
	431 36 1 448.644040 62.915527 0.000001
	432 36 2 449.482784 64.207079 0.000001
	433 37 2 478.101656 50.000000 0.000001
	434 37 1 478.940401 51.291553 0.000001
	435 37 1 478.101656 52.583105 0.000001
	436 37 1 478.940401 53.874658 0.000001
	437 37 1 478.101656 55.166211 0.000001
	438 37 1 478.940401 56.457763 0.000001
	439 37 1 478.101656 57.749316 0.000001
	440 37 1 478.940401 59.040869 0.000001
	441 37 1 478.101656 60.332421 0.000001
	442 37 1 478.940401 61.623974 0.000001
	443 37 1 478.101656 62.915527 0.000001
	444 37 2 478.940401 64.207079 0.000001
	445 38 2 507.559273 50.000000 0.000001
	446 38 1 508.398017 51.291553 0.000001
	447 38 1 507.559273 52.583105 0.000001
	448 38 1 508.398017 53.874658 0.000001
	449 38 1 507.559273 55.166211 0.000001
	450 38 1 508.398017 56.457763 0.000001
	451 38 1 507.559273 57.749316 0.000001
	452 38 1 508.398017 59.040869 0.000001
	453 38 1 507.559273 60.332421 0.000001
	454 38 1 508.398017 61.623974 0.000001
	455 38 1 507.559273 62.915527 0.000001
	456 38 2 508.398017 64.207079 0.000001
	457 39 2 537.016889 50.000000 0.000001
	458 39 1 537.855633 51.291553 0.000001
	459 39 1 537.016889 52.583105 0.000001
	460 39 1 537.855633 53.874658 0.000001
	461 39 1 537.016889 55.166211 0.000001
	462 39 1 537.855633 56.457763 0.000001
	463 39 1 537.016889 57.749316 0.000001
	464 39 1 537.855633 59.040869 0.000001
	465 39 1 537.016889 60.332421 0.000001
	466 39 1 537.855633 61.623974 0.000001
	467 39 1 537.016889 62.915527 0.000001
	468 39 2 537.855633 64.207079 0.000001
	469 40 2 198.254303 75.000000 0.000001
	470 40 1 199.093047 76.291553 0.000001
	471 40 1 198.254303 77.583105 0.000001
	472 40 1 199.093047 78.874658 0.000001
	473 40 1 198.254303 80.166211 0.000001
	474 40 1 199.093047 81.457763 0.000001
	475 40 1 198.254303 82.749316 0.000001
	476 40 1 199.093047 84.040869 0.000001
	477 40 1 198.254303 85.332421 0.000001
	478 40 1 199.093047 86.623974 0.000001
	479 40 1 198.254303 87.915527 0.000001
	480 40 2 199.093047 89.207079 0.000001
	481 41 2 227.711919 75.000000 0.000001
	482 41 1 228.550664 76.291553 0.000001
	483 41 1 227.711919 77.583105 0.000001
	484 41 1 228.550664 78.874658 0.000001
	485 41 1 227.711919 80.166211 0.000001
	486 41 1 228.550664 81.457763 0.000001
	487 41 1 227.711919 82.749316 0.000001
	488 41 1 228.550664 84.040869 0.000001
	489 41 1 227.711919 85.332421 0.000001
	490 41 1 228.550664 86.623974 0.000001
	491 41 1 227.711919 87.915527 0.000001
	492 41 2 228.550664 89.207079 0.000001
	493 42 2 257.169536 75.000000 0.000001
	494 42 1 258.008280 76.291553 0.000001
	495 42 1 257.169536 77.583105 0.000001
	496 42 1 258.008280 78.874658 0.000001
	497 42 1 257.169536 80.166211 0.000001
	498 42 1 258.008280 81.457763 0.000001
	499 42 1 257.169536 82.749316 0.000001
	500 42 1 258.008280 84.040869 0.000001
	501 42 1 257.169536 85.332421 0.000001
	502 42 1 258.008280 86.623974 0.000001
	503 42 1 257.169536 87.915527 0.000001
	504 42 2 258.008280 89.207079 0.000001
	505 43 2 286.627152 75.000000 0.000001
	506 43 1 287.465896 76.291553 0.000001
	507 43 1 286.627152 77.583105 0.000001
	508 43 1 287.465896 78.874658 0.000001
	509 43 1 286.627152 80.166211 0.000001
	510 43 1 287.465896 81.457763 0.000001
	511 43 1 286.627152 82.749316 0.000001
	512 43 1 287.465896 84.040869 0.000001
	513 43 1 286.627152 85.332421 0.000001
	514 43 1 287.465896 86.623974 0.000001
	515 43 1 286.627152 87.915527 0.000001
	516 43 2 287.465896 89.207079 0.000001
	517 44 2 316.084768 75.000000 0.000001
	518 44 1 316.923512 76.291553 0.000001
	519 44 1 316.084768 77.583105 0.000001
	520 44 1 316.923512 78.874658 0.000001
	521 44 1 316.084768 80.166211 0.000001
	522 44 1 316.923512 81.457763 0.000001
	523 44 1 316.084768 82.749316 0.000001
	524 44 1 316.923512 84.040869 0.000001
	525 44 1 316.084768 85.332421 0.000001
	526 44 1 316.923512 86.623974 0.000001
	527 44 1 316.084768 87.915527 0.000001
	528 44 2 316.923512 89.207079 0.000001
	529 45 2 345.542384 75.000000 0.000001
	530 45 1 346.381128 76.291553 0.000001
	531 45 1 345.542384 77.583105 0.000001
	532 45 1 346.381128 78.874658 0.000001
	533 45 1 345.542384 80.166211 0.000001
	534 45 1 346.381128 81.457763 0.000001
	535 45 1 345.542384 82.749316 0.000001
	536 45 1 346.381128 84.040869 0.000001
	537 45 1 345.542384 85.332421 0.000001
	538 45 1 346.381128 86.623974 0.000001
	539 45 1 345.542384 87.915527 0.000001
	540 45 2 346.381128 89.207079 0.000001
	541 46 2 375.000000 75.000000 0.000001
	542 46 1 375.838744 76.291553 0.000001
	543 46 1 375.000000 77.583105 0.000001
	544 46 1 375.838744 78.874658 0.000001
	545 46 1 375.000000 80.166211 0.000001
	546 46 1 375.838744 81.457763 0.000001
	547 46 1 375.000000 82.749316 0.000001
	548 46 1 375.838744 84.040869 0.000001
	549 46 1 375.000000 85.332421 0.000001
	550 46 1 375.838744 86.623974 0.000001
	551 46 1 375.000000 87.915527 0.000001
	552 46 2 375.838744 89.207079 0.000001
	553 47 2 404.457616 75.000000 0.000001
	554 47 1 405.296360 76.291553 0.000001
	555 47 1 404.457616 77.583105 0.000001
	556 47 1 405.296360 78.874658 0.000001
	557 47 1 404.457616 80.166211 0.000001
	558 47 1 405.296360 81.457763 0.000001
	559 47 1 404.457616 82.749316 0.000001
	560 47 1 405.296360 84.040869 0.000001
	561 47 1 404.457616 85.332421 0.000001
	562 47 1 405.296360 86.623974 0.000001
	563 47 1 404.457616 87.915527 0.000001
	564 47 2 405.296360 89.207079 0.000001
	565 48 2 433.915232 75.000000 0.000001
	566 48 1 434.753976 76.291553 0.000001
	567 48 1 433.915232 77.583105 0.000001
	568 48 1 434.753976 78.874658 0.000001
	569 48 1 433.915232 80.166211 0.000001
	570 48 1 434.753976 81.457763 0.000001
	571 48 1 433.915232 82.749316 0.000001
	572 48 1 434.753976 84.040869 0.000001
	573 48 1 433.915232 85.332421 0.000001
	574 48 1 434.753976 86.623974 0.000001
	575 48 1 433.915232 87.915527 0.000001
	576 48 2 434.753976 89.207079 0.000001
	577 49 2 463.372848 75.000000 0.000001
	578 49 1 464.211592 76.291553 0.000001
	579 49 1 463.372848 77.583105 0.000001
	580 49 1 464.211592 78.874658 0.000001
	581 49 1 463.372848 80.166211 0.000001
	582 49 1 464.211592 81.457763 0.000001
	583 49 1 463.372848 82.749316 0.000001
	584 49 1 464.211592 84.040869 0.000001
	585 49 1 463.372848 85.332421 0.000001
	586 49 1 464.211592 86.623974 0.000001
	587 49 1 463.372848 87.915527 0.000001
	588 49 2 464.211592 89.207079 0.000001
	589 50 2 492.830464 75.000000 0.000001
	590 50 1 493.669209 76.291553 0.000001
	591 50 1 492.830464 77.583105 0.000001
	592 50 1 493.669209 78.874658 0.000001
	593 50 1 492.830464 80.166211 0.000001
	594 50 1 493.669209 81.457763 0.000001
	595 50 1 492.830464 82.749316 0.000001
	596 50 1 493.669209 84.040869 0.000001
	597 50 1 492.830464 85.332421 0.000001
	598 50 1 493.669209 86.623974 0.000001
	599 50 1 492.830464 87.915527 0.000001
	600 50 2 493.669209 89.207079 0.000001
	601 51 2 522.288081 75.000000 0.000001
	602 51 1 523.126825 76.291553 0.000001
	603 51 1 522.288081 77.583105 0.000001
	604 51 1 523.126825 78.874658 0.000001
	605 51 1 522.288081 80.166211 0.000001
	606 51 1 523.126825 81.457763 0.000001
	607 51 1 522.288081 82.749316 0.000001
	608 51 1 523.126825 84.040869 0.000001
	609 51 1 522.288081 85.332421 0.000001
	610 51 1 523.126825 86.623974 0.000001
	611 51 1 522.288081 87.915527 0.000001
	612 51 2 523.126825 89.207079 0.000001
	613 52 2 551.745697 75.000000 0.000001
	614 52 1 552.584441 76.291553 0.000001
	615 52 1 551.745697 77.583105 0.000001
	616 52 1 552.584441 78.874658 0.000001
	617 52 1 551.745697 80.166211 0.000001
	618 52 1 552.584441 81.457763 0.000001
	619 52 1 551.745697 82.749316 0.000001
	620 52 1 552.584441 84.040869 0.000001
	621 52 1 551.745697 85.332421 0.000001
	622 52 1 552.584441 86.623974 0.000001
	623 52 1 551.745697 87.915527 0.000001
	624 52 2 552.584441 89.207079 0.000001
	625 53 2 183.525496 100.000000 0.000001
	626 53 1 184.364239 101.291553 0.000001
	627 53 1 183.525496 102.583105 0.000001
	628 53 1 184.364239 103.874658 0.000001
	629 53 1 183.525496 105.166211 0.000001
	630 53 1 184.364239 106.457763 0.000001
	631 53 1 183.525496 107.749316 0.000001
	632 53 1 184.364239 109.040869 0.000001
	633 53 1 183.525496 110.332421 0.000001
	634 53 1 184.364239 111.623974 0.000001
	635 53 1 183.525496 112.915527 0.000001
	636 53 2 184.364239 114.207079 0.000001
	637 54 2 212.983111 100.000000 0.000001
	638 54 1 213.821855 101.291553 0.000001
	639 54 1 212.983111 102.583105 0.000001
	640 54 1 213.821855 103.874658 0.000001
	641 54 1 212.983111 105.166211 0.000001
	642 54 1 213.821855 106.457763 0.000001
	643 54 1 212.983111 107.749316 0.000001
	644 54 1 213.821855 109.040869 0.000001
	645 54 1 212.983111 110.332421 0.000001
	646 54 1 213.821855 111.623974 0.000001
	647 54 1 212.983111 112.915527 0.000001
	648 54 2 213.821855 114.207079 0.000001
	649 55 2 242.440727 100.000000 0.000001
	650 55 1 243.279472 101.291553 0.000001
	651 55 1 242.440727 102.583105 0.000001
	652 55 1 243.279472 103.874658 0.000001
	653 55 1 242.440727 105.166211 0.000001
	654 55 1 243.279472 106.457763 0.000001
	655 55 1 242.440727 107.749316 0.000001
	656 55 1 243.279472 109.040869 0.000001
	657 55 1 242.440727 110.332421 0.000001
	658 55 1 243.279472 111.623974 0.000001
	659 55 1 242.440727 112.915527 0.000001
	660 55 2 243.279472 114.207079 0.000001
	661 56 2 271.898344 100.000000 0.000001
	662 56 1 272.737088 101.291553 0.000001
	663 56 1 271.898344 102.583105 0.000001
	664 56 1 272.737088 103.874658 0.000001
	665 56 1 271.898344 105.166211 0.000001
	666 56 1 272.737088 106.457763 0.000001
	667 56 1 271.898344 107.749316 0.000001
	668 56 1 272.737088 109.040869 0.000001
	669 56 1 271.898344 110.332421 0.000001
	670 56 1 272.737088 111.623974 0.000001
	671 56 1 271.898344 112.915527 0.000001
	672 56 2 272.737088 114.207079 0.000001
	673 57 2 301.355960 100.000000 0.000001
	674 57 1 302.194704 101.291553 0.000001
	675 57 1 301.355960 102.583105 0.000001
	676 57 1 302.194704 103.874658 0.000001
	677 57 1 301.355960 105.166211 0.000001
	678 57 1 302.194704 106.457763 0.000001
	679 57 1 301.355960 107.749316 0.000001
	680 57 1 302.194704 109.040869 0.000001
	681 57 1 301.355960 110.332421 0.000001
	682 57 1 302.194704 111.623974 0.000001
	683 57 1 301.355960 112.915527 0.000001
	684 57 2 302.194704 114.207079 0.000001
	685 58 2 330.813576 100.000000 0.000001
	686 58 1 331.652320 101.291553 0.000001
	687 58 1 330.813576 102.583105 0.000001
	688 58 1 331.652320 103.874658 0.000001
	689 58 1 330.813576 105.166211 0.000001
	690 58 1 331.652320 106.457763 0.000001
	691 58 1 330.813576 107.749316 0.000001
	692 58 1 331.652320 109.040869 0.000001
	693 58 1 330.813576 110.332421 0.000001
	694 58 1 331.652320 111.623974 0.000001
	695 58 1 330.813576 112.915527 0.000001
	696 58 2 331.652320 114.207079 0.000001
	697 59 2 360.271192 100.000000 0.000001
	698 59 1 361.109936 101.291553 0.000001
	699 59 1 360.271192 102.583105 0.000001
	700 59 1 361.109936 103.874658 0.000001
	701 59 1 360.271192 105.166211 0.000001
	702 59 1 361.109936 106.457763 0.000001
	703 59 1 360.271192 107.749316 0.000001
	704 59 1 361.109936 109.040869 0.000001
	705 59 1 360.271192 110.332421 0.000001
	706 59 1 361.109936 111.623974 0.000001
	707 59 1 360.271192 112.915527 0.000001
	708 59 2 361.109936 114.207079 0.000001
	709 60 2 389.728808 100.000000 0.000001
	710 60 1 390.567552 101.291553 0.000001
	711 60 1 389.728808 102.583105 0.000001
	712 60 1 390.567552 103.874658 0.000001
	713 60 1 389.728808 105.166211 0.000001
	714 60 1 390.567552 106.457763 0.000001
	715 60 1 389.728808 107.749316 0.000001
	716 60 1 390.567552 109.040869 0.000001
	717 60 1 389.728808 110.332421 0.000001
	718 60 1 390.567552 111.623974 0.000001
	719 60 1 389.728808 112.915527 0.000001
	720 60 2 390.567552 114.207079 0.000001
	721 61 2 419.186424 100.000000 0.000001
	722 61 1 420.025168 101.291553 0.000001
	723 61 1 419.186424 102.583105 0.000001
	724 61 1 420.025168 103.874658 0.000001
	725 61 1 419.186424 105.166211 0.000001
	726 61 1 420.025168 106.457763 0.000001
	727 61 1 419.186424 107.749316 0.000001
	728 61 1 420.025168 109.040869 0.000001
	729 61 1 419.186424 110.332421 0.000001
	730 61 1 420.025168 111.623974 0.000001
	731 61 1 419.186424 112.915527 0.000001
	732 61 2 420.025168 114.207079 0.000001
	733 62 2 448.644040 100.000000 0.000001
	734 62 1 449.482784 101.291553 0.000001
	735 62 1 448.644040 102.583105 0.000001
	736 62 1 449.482784 103.874658 0.000001
	737 62 1 448.644040 105.166211 0.000001
	738 62 1 449.482784 106.457763 0.000001
	739 62 1 448.644040 107.749316 0.000001
	740 62 1 449.482784 109.040869 0.000001
	741 62 1 448.644040 110.332421 0.000001
	742 62 1 449.482784 111.623974 0.000001
	743 62 1 448.644040 112.915527 0.000001
	744 62 2 449.482784 114.207079 0.000001